
Host: vcv066093.vpn.uci.edu

Timers On : Wed Nov  3 08:22:27 2021
Timers Off: Wed Nov  3 08:22:34 2021

Wall Time:        7.09 seconds

                                                       Time (seconds)
Module                                       User      System        Wall        Calls

--------------------------------------------------------------------------------------

**************************************************************************************

Host: vcv066093.vpn.uci.edu

Timers On : Wed Nov  3 08:22:37 2021
Timers Off: Wed Nov  3 08:22:43 2021

Wall Time:        5.50 seconds

                                                       Time (seconds)
Module                                       User      System        Wall        Calls

--------------------------------------------------------------------------------------

**************************************************************************************

Host: vcv065005.vpn.uci.edu

Timers On : Mon Nov 15 00:20:05 2021
Timers Off: Mon Nov 15 00:20:07 2021

Wall Time:        1.40 seconds

                                                       Time (seconds)
Module                                       User      System        Wall        Calls

--------------------------------------------------------------------------------------

**************************************************************************************

Host: vcv065005.vpn.uci.edu

Timers On : Mon Nov 15 00:24:57 2021
Timers Off: Mon Nov 15 00:24:58 2021

Wall Time:        1.08 seconds

                                                       Time (seconds)
Module                                       User      System        Wall        Calls

--------------------------------------------------------------------------------------

**************************************************************************************

Host: vcv065005.vpn.uci.edu

Timers On : Mon Nov 15 00:26:51 2021
Timers Off: Mon Nov 15 00:26:52 2021

Wall Time:        1.04 seconds

                                                       Time (seconds)
Module                                       User      System        Wall        Calls

--------------------------------------------------------------------------------------

**************************************************************************************

Host: vcv065005.vpn.uci.edu

Timers On : Mon Nov 15 00:27:16 2021
Timers Off: Mon Nov 15 00:27:17 2021

Wall Time:        0.52 seconds

                                                       Time (seconds)
Module                                       User      System        Wall        Calls

--------------------------------------------------------------------------------------

**************************************************************************************

Host: vcv065005.vpn.uci.edu

Timers On : Mon Nov 15 00:27:26 2021
Timers Off: Mon Nov 15 00:27:27 2021

Wall Time:        1.14 seconds

                                                       Time (seconds)
Module                                       User      System        Wall        Calls

--------------------------------------------------------------------------------------

**************************************************************************************

Host: vcv065005.vpn.uci.edu

Timers On : Mon Nov 15 00:33:05 2021
Timers Off: Mon Nov 15 00:33:06 2021

Wall Time:        1.14 seconds

                                                       Time (seconds)
Module                                       User      System        Wall        Calls

--------------------------------------------------------------------------------------

**************************************************************************************

Host: vcv065005.vpn.uci.edu

Timers On : Mon Nov 15 00:33:39 2021
Timers Off: Mon Nov 15 00:33:40 2021

Wall Time:        1.07 seconds

                                                       Time (seconds)
Module                                       User      System        Wall        Calls

--------------------------------------------------------------------------------------

**************************************************************************************

Host: vcv065005.vpn.uci.edu

Timers On : Mon Nov 15 00:33:52 2021
Timers Off: Mon Nov 15 00:33:53 2021

Wall Time:        0.98 seconds

                                                       Time (seconds)
Module                                       User      System        Wall        Calls

--------------------------------------------------------------------------------------

**************************************************************************************

Host: vcv065005.vpn.uci.edu

Timers On : Mon Nov 15 00:34:28 2021
Timers Off: Mon Nov 15 00:34:30 2021

Wall Time:        1.43 seconds

                                                       Time (seconds)
Module                                       User      System        Wall        Calls

--------------------------------------------------------------------------------------

**************************************************************************************

Host: vcv065060.vpn.uci.edu

Timers On : Tue Nov 16 08:47:20 2021
Timers Off: Tue Nov 16 08:47:22 2021

Wall Time:        1.74 seconds

                                                       Time (seconds)
Module                                       User      System        Wall        Calls

--------------------------------------------------------------------------------------

**************************************************************************************

Host: vcv065060.vpn.uci.edu

Timers On : Tue Nov 16 08:50:39 2021
Timers Off: Tue Nov 16 08:50:40 2021

Wall Time:        1.44 seconds

                                                       Time (seconds)
Module                                       User      System        Wall        Calls

--------------------------------------------------------------------------------------

**************************************************************************************

Host: vcv065060.vpn.uci.edu

Timers On : Tue Nov 16 09:02:32 2021
Timers Off: Tue Nov 16 09:02:33 2021

Wall Time:        1.08 seconds

                                                       Time (seconds)
Module                                       User      System        Wall        Calls

--------------------------------------------------------------------------------------

**************************************************************************************

Host: vcv065060.vpn.uci.edu

Timers On : Tue Nov 16 09:02:48 2021
Timers Off: Tue Nov 16 09:02:49 2021

Wall Time:        0.78 seconds

                                                       Time (seconds)
Module                                       User      System        Wall        Calls

--------------------------------------------------------------------------------------

**************************************************************************************

Host: vcv065060.vpn.uci.edu

Timers On : Tue Nov 16 09:03:08 2021
Timers Off: Tue Nov 16 09:03:09 2021

Wall Time:        0.95 seconds

                                                       Time (seconds)
Module                                       User      System        Wall        Calls

--------------------------------------------------------------------------------------

**************************************************************************************

Host: vcv065060.vpn.uci.edu

Timers On : Tue Nov 16 09:03:29 2021
Timers Off: Tue Nov 16 09:03:30 2021

Wall Time:        0.70 seconds

                                                       Time (seconds)
Module                                       User      System        Wall        Calls

--------------------------------------------------------------------------------------

**************************************************************************************

Host: vcv065060.vpn.uci.edu

Timers On : Tue Nov 16 09:07:00 2021
Timers Off: Tue Nov 16 09:07:01 2021

Wall Time:        1.02 seconds

                                                       Time (seconds)
Module                                       User      System        Wall        Calls

--------------------------------------------------------------------------------------

**************************************************************************************

Host: vcv065060.vpn.uci.edu

Timers On : Tue Nov 16 09:07:13 2021
Timers Off: Tue Nov 16 09:07:14 2021

Wall Time:        0.98 seconds

                                                       Time (seconds)
Module                                       User      System        Wall        Calls

--------------------------------------------------------------------------------------

**************************************************************************************

Host: vcv065060.vpn.uci.edu

Timers On : Tue Nov 16 09:07:30 2021
Timers Off: Tue Nov 16 09:07:30 2021

Wall Time:        0.73 seconds

                                                       Time (seconds)
Module                                       User      System        Wall        Calls

--------------------------------------------------------------------------------------

**************************************************************************************

Host: vcv065060.vpn.uci.edu

Timers On : Tue Nov 16 09:08:33 2021
Timers Off: Tue Nov 16 09:08:34 2021

Wall Time:        1.15 seconds

                                                       Time (seconds)
Module                                       User      System        Wall        Calls

--------------------------------------------------------------------------------------

**************************************************************************************

Host: vcv065060.vpn.uci.edu

Timers On : Tue Nov 16 09:09:04 2021
Timers Off: Tue Nov 16 09:09:05 2021

Wall Time:        0.72 seconds

                                                       Time (seconds)
Module                                       User      System        Wall        Calls

--------------------------------------------------------------------------------------

**************************************************************************************

Host: vcv065060.vpn.uci.edu

Timers On : Tue Nov 16 09:10:47 2021
Timers Off: Tue Nov 16 09:10:48 2021

Wall Time:        0.73 seconds

                                                       Time (seconds)
Module                                       User      System        Wall        Calls

--------------------------------------------------------------------------------------

**************************************************************************************

Host: vcv065060.vpn.uci.edu

Timers On : Tue Nov 16 09:13:08 2021
Timers Off: Tue Nov 16 09:13:09 2021

Wall Time:        0.85 seconds

                                                       Time (seconds)
Module                                       User      System        Wall        Calls

--------------------------------------------------------------------------------------

**************************************************************************************

Host: vcv065060.vpn.uci.edu

Timers On : Tue Nov 16 09:13:15 2021
Timers Off: Tue Nov 16 09:13:16 2021

Wall Time:        0.71 seconds

                                                       Time (seconds)
Module                                       User      System        Wall        Calls

--------------------------------------------------------------------------------------

**************************************************************************************

Host: vcv065060.vpn.uci.edu

Timers On : Tue Nov 16 09:14:14 2021
Timers Off: Tue Nov 16 09:14:15 2021

Wall Time:        0.70 seconds

                                                       Time (seconds)
Module                                       User      System        Wall        Calls

--------------------------------------------------------------------------------------

**************************************************************************************

Host: vcv065060.vpn.uci.edu

Timers On : Tue Nov 16 09:15:06 2021
Timers Off: Tue Nov 16 09:15:07 2021

Wall Time:        0.70 seconds

                                                       Time (seconds)
Module                                       User      System        Wall        Calls

--------------------------------------------------------------------------------------

**************************************************************************************

Host: vcv065060.vpn.uci.edu

Timers On : Tue Nov 16 09:16:36 2021
Timers Off: Tue Nov 16 09:16:36 2021

Wall Time:        0.51 seconds

                                                       Time (seconds)
Module                                       User      System        Wall        Calls

--------------------------------------------------------------------------------------

**************************************************************************************

Host: vcv065060.vpn.uci.edu

Timers On : Tue Nov 16 09:16:50 2021
Timers Off: Tue Nov 16 09:16:51 2021

Wall Time:        0.53 seconds

                                                       Time (seconds)
Module                                       User      System        Wall        Calls

--------------------------------------------------------------------------------------

**************************************************************************************

Host: macaw.local

Timers On : Tue Nov 16 13:13:31 2021
Timers Off: Tue Nov 16 13:14:02 2021

Wall Time:       31.01 seconds

                                                       Time (seconds)
Module                                       User      System        Wall        Calls

--------------------------------------------------------------------------------------

**************************************************************************************



Host: macaw.local

Timers On : Tue Nov 16 13:20:38 2021
Timers Off: Tue Nov 16 13:21:08 2021

Wall Time:       30.04 seconds

                                                       Time (seconds)
Module                                       User      System        Wall        Calls

--------------------------------------------------------------------------------------

**************************************************************************************



Host: macaw.local

Timers On : Tue Nov 16 13:21:44 2021
Timers Off: Tue Nov 16 13:22:13 2021

Wall Time:       29.02 seconds

                                                       Time (seconds)
Module                                       User      System        Wall        Calls

--------------------------------------------------------------------------------------

**************************************************************************************



Host: macaw.local

Timers On : Tue Nov 16 13:23:22 2021
Timers Off: Tue Nov 16 13:23:51 2021

Wall Time:       29.14 seconds

                                                       Time (seconds)
Module                                       User      System        Wall        Calls

--------------------------------------------------------------------------------------

**************************************************************************************


Host: macaw.local

Timers On : Tue Nov 16 13:24:34 2021
Timers Off: Tue Nov 16 13:25:05 2021

Wall Time:       31.45 seconds

                                                       Time (seconds)
Module                                       User      System        Wall        Calls

--------------------------------------------------------------------------------------

**************************************************************************************

Host: vcv070135.vpn.uci.edu

Timers On : Tue Nov 16 15:58:33 2021
Timers Off: Tue Nov 16 15:58:35 2021

Wall Time:        1.66 seconds

                                                       Time (seconds)
Module                                       User      System        Wall        Calls

--------------------------------------------------------------------------------------

**************************************************************************************

Host: vcv070135.vpn.uci.edu

Timers On : Tue Nov 16 16:00:55 2021
Timers Off: Tue Nov 16 16:01:24 2021

Wall Time:       29.17 seconds

                                                       Time (seconds)
Module                                       User      System        Wall        Calls

--------------------------------------------------------------------------------------

**************************************************************************************

Host: vcv069156.vpn.uci.edu

Timers On : Thu Nov 18 08:39:42 2021
Timers Off: Thu Nov 18 08:40:14 2021

Wall Time:       32.19 seconds

                                                       Time (seconds)
Module                                       User      System        Wall        Calls

--------------------------------------------------------------------------------------

**************************************************************************************

Host: vcv069156.vpn.uci.edu

Timers On : Thu Nov 18 08:41:24 2021
Timers Off: Thu Nov 18 08:41:53 2021

Wall Time:       29.32 seconds

                                                       Time (seconds)
Module                                       User      System        Wall        Calls

--------------------------------------------------------------------------------------

**************************************************************************************

Host: vcv069156.vpn.uci.edu

Timers On : Thu Nov 18 08:43:18 2021
Timers Off: Thu Nov 18 08:43:20 2021

Wall Time:        2.02 seconds

                                                       Time (seconds)
Module                                       User      System        Wall        Calls

--------------------------------------------------------------------------------------

**************************************************************************************

Host: vcv069156.vpn.uci.edu

Timers On : Thu Nov 18 08:42:51 2021
Timers Off: Thu Nov 18 08:43:21 2021

Wall Time:       29.51 seconds

                                                       Time (seconds)
Module                                       User      System        Wall        Calls

--------------------------------------------------------------------------------------

**************************************************************************************

Host: vcv069156.vpn.uci.edu

Timers On : Thu Nov 18 08:45:47 2021
Timers Off: Thu Nov 18 08:46:18 2021

Wall Time:       30.29 seconds

                                                       Time (seconds)
Module                                       User      System        Wall        Calls

--------------------------------------------------------------------------------------

**************************************************************************************

Host: vcv069156.vpn.uci.edu

Timers On : Thu Nov 18 08:48:01 2021
Timers Off: Thu Nov 18 08:48:04 2021

Wall Time:        2.06 seconds

                                                       Time (seconds)
Module                                       User      System        Wall        Calls

--------------------------------------------------------------------------------------

**************************************************************************************

Host: vcv069156.vpn.uci.edu

Timers On : Thu Nov 18 08:47:33 2021
Timers Off: Thu Nov 18 08:48:21 2021

Wall Time:       47.43 seconds

                                                       Time (seconds)
Module                                       User      System        Wall        Calls

--------------------------------------------------------------------------------------

**************************************************************************************


Host: vcv069156.vpn.uci.edu

Timers On : Thu Nov 18 11:12:07 2021
Timers Off: Thu Nov 18 11:12:39 2021

Wall Time:       31.22 seconds

                                                       Time (seconds)
Module                                       User      System        Wall        Calls

--------------------------------------------------------------------------------------

**************************************************************************************

Host: vcv069156.vpn.uci.edu

Timers On : Thu Nov 18 11:13:57 2021
Timers Off: Thu Nov 18 11:14:27 2021

Wall Time:       30.52 seconds

                                                       Time (seconds)
Module                                       User      System        Wall        Calls

--------------------------------------------------------------------------------------

**************************************************************************************

Host: vcv069156.vpn.uci.edu

Timers On : Thu Nov 18 13:50:31 2021
Timers Off: Thu Nov 18 13:51:06 2021

Wall Time:       35.30 seconds

                                                       Time (seconds)
Module                                       User      System        Wall        Calls

--------------------------------------------------------------------------------------

**************************************************************************************

Host: vcv069156.vpn.uci.edu

Host: vcv069156.vpn.uci.edu

Timers On : Thu Nov 18 13:53:04 2021
Timers Off: Thu Nov 18 13:53:35 2021

Wall Time:       31.59 seconds

                                                       Time (seconds)
Module                                       User      System        Wall        Calls

--------------------------------------------------------------------------------------

**************************************************************************************

Host: vcv069156.vpn.uci.edu

Timers On : Thu Nov 18 13:54:32 2021
Timers Off: Thu Nov 18 13:54:34 2021

Wall Time:        2.40 seconds

                                                       Time (seconds)
Module                                       User      System        Wall        Calls

--------------------------------------------------------------------------------------

**************************************************************************************

Host: vcv069156.vpn.uci.edu

Timers On : Thu Nov 18 13:54:04 2021
Timers Off: Thu Nov 18 13:54:34 2021

Wall Time:       30.75 seconds

                                                       Time (seconds)
Module                                       User      System        Wall        Calls

--------------------------------------------------------------------------------------

**************************************************************************************

Host: vcv069156.vpn.uci.edu

Timers On : Thu Nov 18 13:55:36 2021
Timers Off: Thu Nov 18 13:55:38 2021

Wall Time:        2.20 seconds

                                                       Time (seconds)
Module                                       User      System        Wall        Calls

--------------------------------------------------------------------------------------

**************************************************************************************

Host: vcv069156.vpn.uci.edu

Timers On : Thu Nov 18 13:55:08 2021
Timers Off: Thu Nov 18 13:55:38 2021

Wall Time:       30.27 seconds

                                                       Time (seconds)
Module                                       User      System        Wall        Calls

--------------------------------------------------------------------------------------

**************************************************************************************
